1
Lattice="2.41467637 -0.0 1.39411444 0.80489179 2.27657954 1.39411444 0.0 0.0 2.78822786" Properties=species:S:1:pos:R:3:initial_magmoms:R:1:energies:R:1:forces:R:3 structure_type=bulk source=mp-126 label=conventional_bulk energy=0.0032648248696443005 free_energy=0.0032648248696443005 stress="0.027117249734299003 -4.760924856619774e-08 8.966192859985596e-08 -4.760924856619774e-08 0.02711754745066926 6.340041284871015e-08 8.966192859985596e-08 6.340041284871015e-08 0.027117154723263925" pbc="T T T"
Pt       0.00000000       0.00000000       0.00000000      -0.00500000       0.00326482       0.00000000       0.00000000       0.00000000
2
Lattice="2.760666 0.0 0.0 -1.380333 2.390806 0.0 0.0 0.0 4.792134" Properties=species:S:1:pos:R:3:initial_magmoms:R:1:energies:R:1:forces:R:3 structure_type=bulk source=mp-2647022 label=alternative_bulk_1 energy=0.08214996277794029 free_energy=0.08214996277794029 stress="0.05073806501731488 2.983735114222172e-08 -3.0018986073464904e-18 2.983735114222172e-08 0.0507378597429334 1.5716880620580068e-17 -3.0018986073464904e-18 1.5716880620580068e-17 0.09046656121873675" pbc="T T T"
Pt       0.00000000       0.00000000       0.00000000      -0.00000000       0.04107498       0.00000101      -0.00000033       0.00000000
Pt       1.38033438       0.79693454       2.39606700      -0.00000000       0.04107498      -0.00000101       0.00000033       0.00000000
1
Lattice="-1.5842200000000002 1.5842200000000002 1.5842200000000002 1.5842200000000002 -1.5842200000000002 1.5842200000000002 1.5842200000000002 1.5842200000000002 -1.5842200000000002" Properties=species:S:1:pos:R:3:initial_magmoms:R:1:energies:R:1:forces:R:3 structure_type=bulk source=mp-2646979 label=alternative_bulk_2 energy=0.07613381233222505 free_energy=0.07613381233222505 stress="0.0662595886042134 -3.158715861403366e-17 1.1915058562783062e-16 -3.158715861403366e-17 0.0662595886042125 1.7349702513198646e-16 1.1915058562783062e-16 1.7349702513198646e-16 0.0662595886042116" pbc="T T T"
Pt       0.00000000       0.00000000       0.00000000      -0.00000000       0.07613381      -0.00000000      -0.00000000       0.00000000
1
Lattice="2.421798886826734 0.004821933864732859 1.3891252421356644 0.8158692589854787 2.293162727576621 1.4256665241634792 -0.0042624695215165345 0.01505961580901404 2.7886811567443277" Properties=species:S:1:pos:R:3:initial_magmoms:R:1:energies:R:1:forces:R:3 structure_type=bulk_deformed source=mp-126 label=conventional_bulk deformation_id=0 energy=0.008203055320835873 free_energy=0.008203055320835873 stress="0.040018030272780496 0.00010488846747524261 0.0010287223755301768 0.00010488846747524261 0.04068315910677683 0.004103724663218622 0.0010287223755301768 0.004103724663218622 0.03840757938506677" pbc="T T T"
Pt       0.00000000       0.00000000       0.00000000      -0.00500000       0.00820306      -0.00000000      -0.00000000      -0.00000000
1
Lattice="2.4486433690656875 -0.005151595056167676 1.4262589587802517 0.7962301329344325 2.267535446746135 1.3865921690125271 0.013013804787180169 0.0009559354429304223 2.780192521437508" Properties=species:S:1:pos:R:3:initial_magmoms:R:1:energies:R:1:forces:R:3 structure_type=bulk_deformed source=mp-126 label=conventional_bulk deformation_id=1 energy=0.007741186322794746 free_energy=0.007741186322794746 stress="0.04155819884840912 -0.004891205694844612 0.00497589217888839 -0.004891205694844612 0.029805740994186536 0.0006346249052177153 0.00497589217888839 0.0006346249052177153 0.029832943622856222" pbc="T T T"
Pt       0.00000000       0.00000000       0.00000000      -0.00500000       0.00774119       0.00000000       0.00000000       0.00000000
1
Lattice="2.456234776815884 0.01201517190060092 1.4536695652710931 0.8252044262291499 2.297986865291362 1.4069248150527487 0.024338758627974265 -0.006251622566944981 2.805448832078362" Properties=species:S:1:pos:R:3:initial_magmoms:R:1:energies:R:1:forces:R:3 structure_type=bulk_deformed source=mp-126 label=conventional_bulk deformation_id=2 energy=0.024411163380095857 free_energy=0.024411163380095857 stress="0.06591457878066004 0.0004992760609674394 0.006689236823851227 0.0004992760609674394 0.06601598276516825 0.0010926380554881062 0.006689236823851227 0.0010926380554881062 0.06501940672532966" pbc="T T T"
Pt       0.00000000       0.00000000       0.00000000      -0.00500000       0.02441116       0.00000000      -0.00000000      -0.00000000
1
Lattice="2.3797178526184455 0.02055103710244239 1.3772592006966409 0.8296075989111347 2.284833321805102 1.3866523614176312 -0.01162982643049748 -0.020495179116058946 2.7309610411259584" Properties=species:S:1:pos:R:3:initial_magmoms:R:1:energies:R:1:forces:R:3 structure_type=bulk_deformed source=mp-126 label=conventional_bulk deformation_id=3 energy=0.006116049847983973 free_energy=0.006116049847983973 stress="-0.03298748245461605 0.008028485136256184 0.0003092037183201807 0.008028485136256184 -0.011011017565136064 0.00027198381158252157 0.0003092037183201807 0.00027198381158252157 -0.03217559946719875" pbc="T T T"
Pt       0.00000000       0.00000000       0.00000000      -0.00500000       0.00611605      -0.00000000       0.00000000      -0.00000000
1
Lattice="2.372699769112021 -0.012404241422460629 1.3416858391644042 0.7991662231884715 2.297597918622749 1.4032955140258225 -0.018903064699282966 0.0031892487521984845 2.7864562394221375" Properties=species:S:1:pos:R:3:initial_magmoms:R:1:energies:R:1:forces:R:3 structure_type=bulk_deformed source=mp-126 label=conventional_bulk deformation_id=4 energy=0.0058802115002745126 free_energy=0.0058802115002745126 stress="0.007716680100633817 0.001567593876378779 -0.009806387848149472 0.001567593876378779 0.030470534513575214 -0.00012764466006228413 -0.009806387848149472 -0.00012764466006228413 0.01885956440903017" pbc="T T T"
Pt       0.00000000       0.00000000       0.00000000      -0.00500000       0.00588021      -0.00000000      -0.00000000       0.00000000
1
Lattice="2.3721644158200648 0.0022441970984171423 1.3582491562672838 0.8043033185996186 2.2681824961524613 1.4116187216420581 -0.004456979666479134 0.017368617050101783 2.8226902381224512" Properties=species:S:1:pos:R:3:initial_magmoms:R:1:energies:R:1:forces:R:3 structure_type=bulk_deformed source=mp-126 label=conventional_bulk deformation_id=5 energy=0.004318189460947863 free_energy=0.004318189460947863 stress="-0.003570442565655496 0.005128024358070495 -0.00793319043562517 0.005128024358070495 0.00494951860653045 0.0005693657920587377 -0.00793319043562517 0.0005693657920587377 0.01877133490847361" pbc="T T T"
Pt       0.00000000       0.00000000       0.00000000      -0.00500000       0.00431819      -0.00000000       0.00000000       0.00000000
1
Lattice="2.427435349945474 0.004403124810645799 1.435448273298249 0.802659809011514 2.257057159623275 1.4130172151305438 0.03598941078000334 0.022993688764783526 2.8257697715179098" Properties=species:S:1:pos:R:3:initial_magmoms:R:1:energies:R:1:forces:R:3 structure_type=bulk_deformed source=mp-126 label=conventional_bulk deformation_id=6 energy=0.006143226829459891 free_energy=0.006143226829459891 stress="0.024032626968716532 -0.0009231942420409596 0.00836958518129175 -0.0009231942420409596 0.012829110623141168 0.004658095450936268 0.00836958518129175 0.004658095450936268 0.03117978583853403" pbc="T T T"
Pt       0.00000000       0.00000000       0.00000000      -0.00500000       0.00614323       0.00000000       0.00000000      -0.00000000
1
Lattice="2.430683964539863 -0.01641996529666513 1.4214461142114165 0.7897849326274085 2.283110777931918 1.3902957492914234 0.02211719682745935 0.0018264161795168512 2.793268195882577" Properties=species:S:1:pos:R:3:initial_magmoms:R:1:energies:R:1:forces:R:3 structure_type=bulk_deformed source=mp-126 label=conventional_bulk deformation_id=7 energy=0.00917920607895617 free_energy=0.00917920607895617 stress="0.040998918210529166 -0.004220972176676443 0.005143415536864855 -0.004220972176676443 0.04148184948368615 0.000524179535692875 0.005143415536864855 0.000524179535692875 0.03725946959614476" pbc="T T T"
Pt       0.00000000       0.00000000       0.00000000      -0.00500000       0.00917921       0.00000000       0.00000000      -0.00000000
1
Lattice="2.4343844020798513 -0.0026886212742536376 1.395965552179968 0.805359164182941 2.285967342006562 1.4324098932744662 0.0025703450112966797 0.027918529156578695 2.846054736989055" Properties=species:S:1:pos:R:3:initial_magmoms:R:1:energies:R:1:forces:R:3 structure_type=bulk_deformed source=mp-126 label=conventional_bulk deformation_id=8 energy=0.026249155337060515 free_energy=0.026249155337060515 stress="0.0690321186320218 -0.001028018389093739 -0.000932259761251674 -0.001028018389093739 0.06276541473664152 0.003057166873194039 -0.000932259761251674 0.003057166873194039 0.07325979971236837" pbc="T T T"
Pt       0.00000000       0.00000000       0.00000000      -0.00500000       0.02624916      -0.00000000       0.00000000      -0.00000000
1
Lattice="2.4032465125626907 -7.618887508193744e-05 1.3594538961455704 0.7927141935401454 2.2423646358194467 1.347393197399398 -0.0317004394450004 -0.021002199223295135 2.7258472295711873" Properties=species:S:1:pos:R:3:initial_magmoms:R:1:energies:R:1:forces:R:3 structure_type=bulk_deformed source=mp-126 label=conventional_bulk deformation_id=9 energy=0.006769608462318999 free_energy=0.006769608462318999 stress="-0.02052945897073246 -0.002547221722295588 -0.007475491040356685 -0.002547221722295588 -0.032509234091804846 -0.00680747750597129 -0.007475491040356685 -0.00680747750597129 -0.041615880998267525" pbc="T T T"
Pt       0.00000000       0.00000000       0.00000000      -0.00500000       0.00676961      -0.00000000       0.00000000      -0.00000000
2
Lattice="2.7698861767385896 -0.016873184957521645 -0.03371756138525347 -1.4099353819608633 2.4083324406359785 0.02710721140224324 -0.027232106563730225 0.013523846299738605 4.778412173325807" Properties=species:S:1:pos:R:3:initial_magmoms:R:1:energies:R:1:forces:R:3 structure_type=bulk_deformed source=mp-2647022 label=alternative_bulk_1 deformation_id=0 energy=0.08794792477139879 free_energy=0.08794792477139879 stress="0.05970376213202961 -0.004948975803191849 -0.0019041778208849047 -0.004948975803191849 0.05952053285926821 0.0007913862283380684 -0.0019041778208849047 0.0007913862283380684 0.09307416030772538" pbc="T T T"
Pt       0.00000000       0.00000000       0.00000000      -0.00000000       0.04397396      -0.00976910      -0.00195558      -0.00305688
Pt       1.36299766       0.79828981       2.37576343      -0.00000000       0.04397396       0.00976910       0.00195558       0.00305688
2
Lattice="2.7757764514649965 0.018102215087022824 -0.04658387965346376 -1.3653719514931408 2.401097143643556 0.03649158309046328 -0.03734725887661272 0.018205729598166107 4.749140276298355" Properties=species:S:1:pos:R:3:initial_magmoms:R:1:energies:R:1:forces:R:3 structure_type=bulk_deformed source=mp-2647022 label=alternative_bulk_1 deformation_id=1 energy=0.0828487565731244 free_energy=0.0828487565731244 stress="0.0635385793963694 0.004487361260625483 -0.002819671521208954 0.004487361260625483 0.06464356407910964 0.0010675827070557278 -0.002819671521208954 0.0010675827070557278 0.09120903230707113" pbc="T T T"
Pt       0.00000000       0.00000000       0.00000000      -0.00000000       0.04142438       0.01436936      -0.00511769       0.00515651
Pt       1.37672140       0.82153593       2.35567805      -0.00000000       0.04142438      -0.01436936       0.00511769      -0.00515651
2
Lattice="2.7591511462662983 0.014871836761756034 0.08448124021065244 -1.3543304370063987 2.3755119300076504 -0.019959312441342608 0.05441729824488981 -0.009957744074067328 4.8040094712096" Properties=species:S:1:pos:R:3:initial_magmoms:R:1:energies:R:1:forces:R:3 structure_type=bulk_deformed source=mp-2647022 label=alternative_bulk_1 deformation_id=2 energy=0.0867688593204825 free_energy=0.0867688593204825 stress="0.04604375166547754 0.00546672119465253 0.00419565928074281 0.00546672119465253 0.043667335442097374 0.0006134023519914865 0.00419565928074281 0.0006134023519914865 0.08751134792616755" pbc="T T T"
Pt       0.00000000       0.00000000       0.00000000      -0.00000000       0.04338443       0.00805686      -0.00759928      -0.00689895
Pt       1.41520064       0.79677221       2.45167249      -0.00000000       0.04338443      -0.00805686       0.00759928       0.00689895
2
Lattice="2.7428328227979883 0.02754785043865811 0.008635130438811313 -1.3468009710944968 2.387822544688592 -0.03266604621068696 0.014383723946811094 -0.01629716098856744 4.845776413190638" Properties=species:S:1:pos:R:3:initial_magmoms:R:1:energies:R:1:forces:R:3 structure_type=bulk_deformed source=mp-2647022 label=alternative_bulk_1 deformation_id=3 energy=0.1152698741293463 free_energy=0.1152698741293463 stress="0.053421042947014344 0.0059833733692425855 0.0005090869668123895 0.0059833733692425855 0.0598390373616109 -0.0011918423619012362 0.0005090869668123895 -0.0011918423619012362 0.10047966645729811" pbc="T T T"
Pt       0.00000000       0.00000000       0.00000000      -0.00000000       0.05763494       0.01189184      -0.00510070      -0.00275557
Pt       1.38681478       0.80615672       2.41775629      -0.00000000       0.05763494      -0.01189184       0.00510070       0.00275557
2
Lattice="2.7868066939837943 0.002534303032414711 0.032735491195358984 -1.394770751024782 2.4208815151052963 -0.03681542640811804 0.029462720682794704 -0.018367295728601716 4.779662561465401" Properties=species:S:1:pos:R:3:initial_magmoms:R:1:energies:R:1:forces:R:3 structure_type=bulk_deformed source=mp-2647022 label=alternative_bulk_1 deformation_id=4 energy=0.12354306239380364 free_energy=0.12354306239380364 stress="0.08420796015767228 8.492497565350092e-05 0.001734007925401633 8.492497565350092e-05 0.08597182297139142 -0.0011855336668562166 0.001734007925401633 -0.0011855336668562166 0.10781076334700765" pbc="T T T"
Pt       0.00000000       0.00000000       0.00000000      -0.00000000       0.06177153       0.00237688      -0.00274239      -0.00067179
Pt       1.40768030       0.79946559       2.39938316      -0.00000000       0.06177153      -0.00237688       0.00274239       0.00067179
2
Lattice="2.7600495816479036 0.01109026241483691 -0.0243609685450177 -1.3996861595462042 2.4465071680092705 -0.018648396988122158 -0.008662424679588304 -0.00930372552386565 4.751743029653271" Properties=species:S:1:pos:R:3:initial_magmoms:R:1:energies:R:1:forces:R:3 structure_type=bulk_deformed source=mp-2647022 label=alternative_bulk_1 deformation_id=5 energy=0.11340656837498031 free_energy=0.11340656837498031 stress="0.07591583127306575 -0.000921284244088096 -0.0010492357778548783 -0.000921284244088096 0.08917253391404298 -0.00153983135461351 -0.0010492357778548783 -0.00153983135461351 0.10323835776357515" pbc="T T T"
Pt       0.00000000       0.00000000       0.00000000      -0.00000000       0.05670328      -0.00410531      -0.01464455      -0.00433867
Pt       1.36914118       0.81824323       2.35341473      -0.00000000       0.05670328       0.00410531       0.01464455       0.00433867
2
Lattice="2.8066630690119805 -0.015593687585008597 -0.032111824240607274 -1.3922862972533494 2.3803223353064342 -0.0582582001548467 -0.0017182961045497298 -0.029065141851085222 4.840046586708674" Properties=species:S:1:pos:R:3:initial_magmoms:R:1:energies:R:1:forces:R:3 structure_type=bulk_deformed source=mp-2647022 label=alternative_bulk_1 deformation_id=6 energy=0.1356208289042904 free_energy=0.1356208289042904 stress="0.08011223447288482 -0.0002903184938872838 -0.0008779620574175971 -0.0002903184938872838 0.0678337835270919 -0.002688544390311684 -0.0008779620574175971 -0.002688544390311684 0.10761451275655036" pbc="T T T"
Pt       0.00000000       0.00000000       0.00000000      -0.00000000       0.06781041      -0.00408601       0.01745416       0.00850539
Pt       1.40615553       0.76851162       2.37919602      -0.00000000       0.06781041       0.00408601      -0.01745416      -0.00850539
2
Lattice="2.7348469623997658 0.008272710640710099 -0.047060324032322964 -1.384494704138754 2.4145597016204094 -0.01947574442524469 -0.021500822759815488 -0.009716490946693385 4.850820290698899" Properties=species:S:1:pos:R:3:initial_magmoms:R:1:energies:R:1:forces:R:3 structure_type=bulk_deformed source=mp-2647022 label=alternative_bulk_1 deformation_id=7 energy=0.1273955746876183 free_energy=0.1273955746876183 stress="0.058615109325724724 -0.0011024522840829105 -0.0015189677027097075 -0.0011024522840829105 0.07160076395644996 -0.0014606052164393524 -0.0015189677027097075 -0.0014606052164393524 0.10476674972998183" pbc="T T T"
Pt       0.00000000       0.00000000       0.00000000      -0.00000000       0.06369779      -0.00591490      -0.01052223      -0.00476979
Pt       1.35098403       0.80550933       2.38754467      -0.00000000       0.06369779       0.00591490       0.01052223       0.00476979
2
Lattice="2.793848523669159 0.0022494165712142423 -0.008532449705809587 -1.389958615389494 2.4119768818632044 0.017831538685063365 -0.010051618983798888 0.00889619315267094 4.786030608657622" Properties=species:S:1:pos:R:3:initial_magmoms:R:1:energies:R:1:forces:R:3 structure_type=bulk_deformed source=mp-2647022 label=alternative_bulk_1 deformation_id=8 energy=0.12454747517810105 free_energy=0.12454747517810105 stress="0.08533846015461719 0.0009141692713990113 -0.0004967292698121799 0.0009141692713990113 0.08402582426611724 0.000692563852624816 -0.0004967292698121799 0.000692563852624816 0.10861058084601817" pbc="T T T"
Pt       0.00000000       0.00000000       0.00000000      -0.00000000       0.06227374       0.00227020       0.00150467      -0.00000294
Pt       1.39422173       0.80993920       2.39327084      -0.00000000       0.06227374      -0.00227020      -0.00150467       0.00000294
2
Lattice="2.751063013223707 -0.03824295248528889 -0.014742803919398023 -1.4348232738043576 2.4086999827471693 -0.01353427574756367 -0.00459464407286755 -0.0067522793943011 4.8636316349833635" Properties=species:S:1:pos:R:3:initial_magmoms:R:1:energies:R:1:forces:R:3 structure_type=bulk_deformed source=mp-2647022 label=alternative_bulk_1 deformation_id=9 energy=0.1279332531459474 free_energy=0.1279332531459474 stress="0.0545403821961812 -0.012043326999268932 -0.00036482081720856554 -0.012043326999268932 0.05389213116034427 -0.0006294257419932398 -0.00036482081720856554 -0.0006294257419932398 0.10172665626784502" pbc="T T T"
Pt       0.00000000       0.00000000       0.00000000      -0.00000000       0.06396663      -0.02007463      -0.00204411      -0.00258282
Pt       1.35347166       0.77402774       2.41747586      -0.00000000       0.06396663       0.02007463       0.00204411       0.00258282
1
Lattice="-1.612240848874624 1.5970063914946981 1.5972086026269794 1.6017393549775762 -1.6015138003954095 1.5864815541477648 1.5999370365835028 1.5844770246214104 -1.599711482001336" Properties=species:S:1:pos:R:3:initial_magmoms:R:1:energies:R:1:forces:R:3 structure_type=bulk_deformed source=mp-2646979 label=alternative_bulk_2 deformation_id=0 energy=0.10098304234920441 free_energy=0.10098304234920441 stress="0.09042851410772773 -0.0032395869040677304 -0.0026379231583903533 -0.0032395869040677304 0.09083600763661913 -0.0008856096207503428 -0.0026379231583903533 -0.0008856096207503428 0.09077639992621704" pbc="T T T"
Pt       0.00000000       0.00000000       0.00000000      -0.00000000       0.10098304       0.00000000      -0.00000000      -0.00000000
1
Lattice="-1.5579712872211176 1.5604188940154564 1.5700771338370065 1.579967611335897 -1.5873174343431833 1.599423280959072 1.5829770565921142 1.5927744863937396 -1.5903268795994008" Properties=species:S:1:pos:R:3:initial_magmoms:R:1:energies:R:1:forces:R:3 structure_type=bulk_deformed source=mp-2646979 label=alternative_bulk_2 deformation_id=1 energy=0.07143600573280828 free_energy=0.07143600573280828 stress="0.05685386458595696 0.004635944195903435 0.004758787475144219 0.004635944195903435 0.05712050046314752 -0.006922941840487318 0.004758787475144219 -0.006922941840487318 0.05665481916309203" pbc="T T T"
Pt       0.00000000       0.00000000       0.00000000      -0.00000000       0.07143601       0.00000000       0.00000000       0.00000000
1
Lattice="-1.5397082511539608 1.5353046146183926 1.597004775462464 1.5620631383032546 -1.5513765955551546 1.608673119863658 1.5851632274896834 1.5700730482060155 -1.5744766847415834" Properties=species:S:1:pos:R:3:initial_magmoms:R:1:energies:R:1:forces:R:3 structure_type=bulk_deformed source=mp-2646979 label=alternative_bulk_2 deformation_id=2 energy=0.06512387680346698 free_energy=0.06512387680346698 stress="0.044201603471292795 0.009546245977433256 0.008951974327459169 0.009546245977433256 0.044913274067863794 0.0002101585311323084 0.008951974327459169 0.0002101585311323084 0.04203922329605064" pbc="T T T"
Pt       0.00000000       0.00000000       0.00000000      -0.00000000       0.06512388       0.00000000      -0.00000000       0.00000000
1
Lattice="-1.5829287104799887 1.5741100094059888 1.5746251864419583 1.5611566046830476 -1.5963855419174857 1.5880820178794552 1.5905500429486303 1.6169602791090687 -1.6257789801830687" Properties=species:S:1:pos:R:3:initial_magmoms:R:1:energies:R:1:forces:R:3 structure_type=bulk_deformed source=mp-2646979 label=alternative_bulk_2 deformation_id=3 energy=0.07899861386922424 free_energy=0.07899861386922424 stress="0.0646258947347178 0.002878828427035333 -0.007455683523108548 0.002878828427035333 0.06363152848622891 -0.009594904560443318 -0.007455683523108548 -0.009594904560443318 0.06475473695880102" pbc="T T T"
Pt       0.00000000       0.00000000       0.00000000      -0.00000000       0.07899861      -0.00000000      -0.00000000      -0.00000000
1
Lattice="-1.5740383519468437 1.5596149136062591 1.5822295575063425 1.5891057564770652 -1.5913235805020232 1.599514786061522 1.5805918825325769 1.5683862682169505 -1.582809706557535" Properties=species:S:1:pos:R:3:initial_magmoms:R:1:energies:R:1:forces:R:3 structure_type=bulk_deformed source=mp-2646979 label=alternative_bulk_2 deformation_id=4 energy=0.068894714007941 free_energy=0.068894714007941 stress="0.05427209761649371 -0.002091604713604305 0.004562539851988849 -0.002091604713604305 0.05546781231668713 -0.004495498789663153 0.004562539851988849 -0.004495498789663153 0.05394021737186406" pbc="T T T"
Pt       0.00000000       0.00000000       0.00000000      -0.00000000       0.06889471       0.00000000      -0.00000000      -0.00000000
1
Lattice="-1.5829140386096137 1.5770049618621462 1.5983231959346156 1.5469725851636322 -1.5655088076973869 1.5809179650223886 1.58069263480215 1.593319780588437 -1.5992288573359044" Properties=species:S:1:pos:R:3:initial_magmoms:R:1:energies:R:1:forces:R:3 structure_type=bulk_deformed source=mp-2646979 label=alternative_bulk_2 deformation_id=5 energy=0.0688048764099296 free_energy=0.0688048764099296 stress="0.05415740736465885 0.0038435909369844887 -0.00789962608828519 0.0038435909369844887 0.05289949189969932 0.0018808937518853216 -0.00789962608828519 0.0018808937518853216 0.0526632182038144" pbc="T T T"
Pt       0.00000000       0.00000000       0.00000000      -0.00000000       0.06880488       0.00000000       0.00000000       0.00000000
1
Lattice="-1.583600897508049 1.5571610866619496 1.609852727496232 1.5556257510263856 -1.5860175970286403 1.612269427016823 1.5738348515461973 1.5777868867023523 -1.604226697548452" Properties=species:S:1:pos:R:3:initial_magmoms:R:1:energies:R:1:forces:R:3 structure_type=bulk_deformed source=mp-2646979 label=alternative_bulk_2 deformation_id=6 energy=0.07012208297763145 free_energy=0.07012208297763145 stress="0.058775409262884555 -0.002522354251898317 -0.002864540238168848 -0.002522354251898317 0.05865585875710295 -0.0033424325877534798 -0.002864540238168848 -0.0033424325877534798 0.05609090172252771" pbc="T T T"
Pt       0.00000000       0.00000000       0.00000000      -0.00000000       0.07012208      -0.00000000       0.00000000      -0.00000000
1
Lattice="-1.5589768981149152 1.6066404050683554 1.5741996857879532 1.5566108492240545 -1.5914993719796862 1.606722159652724 1.5237176338328877 1.6062696635419595 -1.5586061565885194" Properties=species:S:1:pos:R:3:initial_magmoms:R:1:energies:R:1:forces:R:3 structure_type=bulk_deformed source=mp-2646979 label=alternative_bulk_2 deformation_id=7 energy=0.0671714482430179 free_energy=0.0671714482430179 stress="0.05346152168184872 -0.003152538059463344 0.006775070669102684 -0.003152538059463344 0.05011323506144961 0.004980278866762129 0.006775070669102684 0.004980278866762129 0.05138700750853374" pbc="T T T"
Pt       0.00000000       0.00000000       0.00000000      -0.00000000       0.06717145       0.00000000      -0.00000000       0.00000000
1
Lattice="-1.5948510194172343 1.5687403885226012 1.586189315332759 1.6023990174471303 -1.5952095056712279 1.5865478015867527 1.6041646377132537 1.570864495042718 -1.596975125937351" Properties=species:S:1:pos:R:3:initial_magmoms:R:1:energies:R:1:forces:R:3 structure_type=bulk_deformed source=mp-2646979 label=alternative_bulk_2 deformation_id=8 energy=0.08110250098174276 free_energy=0.08110250098174276 stress="0.07073745984480029 -0.001898624876515952 -0.0004809159365359408 -0.001898624876515952 0.07248583847119135 -0.004664362078241543 -0.0004809159365359408 -0.004664362078241543 0.07163799084269945" pbc="T T T"
Pt       0.00000000       0.00000000       0.00000000      -0.00000000       0.08110250      -0.00000000      -0.00000000       0.00000000
1
Lattice="-1.6045152074245488 1.6208836110365765 1.6030619830806803 1.5787371606090401 -1.5847852912027771 1.5833320668589084 1.6082071427757918 1.6306236769815567 -1.614255273369529" Properties=species:S:1:pos:R:3:initial_magmoms:R:1:energies:R:1:forces:R:3 structure_type=bulk_deformed source=mp-2646979 label=alternative_bulk_2 deformation_id=9 energy=0.1317672809880701 free_energy=0.1317672809880701 stress="0.11094558207444843 0.004488591055284654 -0.005082953060027233 0.004488591055284654 0.10936184189782241 0.002632974665504718 -0.005082953060027233 0.002632974665504718 0.11095533466904973" pbc="T T T"
Pt       0.00000000       0.00000000       0.00000000      -0.00000000       0.13176728       0.00000000       0.00000000       0.00000000
