103
Lattice="23.880000000000003 0.0 0.0 0.0 23.880000000000003 0.0 0.0 0.0 23.880000000000003" Properties=species:S:1:pos:R:3:energies:R:1:forces:R:3 energy=14.02491852466769 free_energy=14.02491852466769 stress="1.592984120976408e-05 -1.542145758302645e-05 3.163600167859054e-06 -1.542145758302645e-05 -2.7319694739492484e-05 -1.4244137966609884e-05 3.163600167859054e-06 -1.4244137966609884e-05 -9.437144877834706e-06" pbc="F F F"
Pt       8.37357910       9.94705888       9.76289427       0.24440991      -0.01194168       0.00511292       0.01204491
Pt      10.23626072       8.07367919       9.88906774       0.56325201       0.00776106       0.00691654      -0.01291293
Pt      10.36446306       9.92877820       7.99813083       0.50027194      -0.02426025      -0.03235267       0.00576400
Pt       8.17745208      10.03500644      13.58270812       0.44910215      -0.02357125      -0.01694662       0.00548651
Pt       9.96913388       8.10085039      13.60749444       0.57814466       0.00979649       0.01134366       0.00036241
Pt      10.11555512       9.99211554      11.75604786       0.06999872       0.00241199       0.01345308       0.03215457
Pt       9.98300312       9.91151948      15.54040543       0.18915011       0.00653550       0.01458302      -0.04200606
Pt       8.34427109      14.02075619       9.86346983       0.20985547      -0.00793348      -0.02866286       0.02337111
Pt      10.13010799      11.96813594       9.75079269       0.08592929       0.00876265      -0.00938555      -0.00292163
Pt      10.26504418      14.03075802       8.04162266       0.32408760       0.01563479       0.01582341      -0.01009807
Pt       8.22629812      11.94817423      11.68360297       0.40858786       0.00407344       0.00465509       0.01991959
Pt       8.22892068      13.82032214      13.66359733       0.47572030       0.02799599      -0.01771519      -0.01330928
Pt      10.07022914      11.89517890      13.75713754       0.15562046       0.01467602       0.02367714      -0.01709819
Pt      10.15161572      13.86606947      11.80076902       0.05988281       0.00885381       0.01266037       0.01017000
Pt      10.04120552      13.84703382      15.59952352       0.34336960       0.00314761      -0.00857697       0.03396828
Pt      10.27880053      15.83029140       9.99914091       0.49697196      -0.00098677       0.02100116       0.01838028
Pt      10.11263468      15.70032666      13.72684760       0.47483450      -0.01276393       0.02432826      -0.02070766
Pt      12.12935197       9.99233914       9.93155644       0.17173549      -0.02941821      -0.01291912      -0.03283987
Pt      14.02270639       8.09252306      10.03074493       0.46903661      -0.01106987      -0.04207852       0.02278051
Pt      14.08156082       9.96582607       8.15965370       0.55943896      -0.00173662      -0.01648352      -0.00897961
Pt      12.04904605       8.00200466      11.86178510       0.32545413       0.00181393       0.00458845      -0.00800552
Pt      11.99414798       9.88542691      13.79715395       0.05447273      -0.03718487      -0.00347678      -0.00908234
Pt      14.01649826       8.05983167      13.71913934       0.43930005       0.00833066      -0.00529105       0.00928469
Pt      13.99357673       9.98247536      11.91599250       0.17221033       0.02027262       0.00138394      -0.02904304
Pt      13.89957605       9.87294908      15.63340959       0.46800230       0.01560189      -0.01815139       0.02482530
Pt      12.22111546      11.96841690       8.02186069       0.32547315      -0.01033580      -0.00573269      -0.00189675
Pt      12.16381296      13.90996306       9.91236525       0.03681543      -0.00204088       0.02106156      -0.01130581
Pt      14.13065353      11.92379138       9.97034780       0.02715368      -0.00495312      -0.00979420       0.00655555
Pt      14.23164995      13.88305323       8.21321862       0.44796125      -0.01819505       0.00287263       0.02809059
Pt      12.04786354      11.92175393      11.84212503      -0.00187227       0.00204690      -0.01939424       0.00553682
Pt      12.01773441      13.83972717      13.83870050       0.04724813       0.01617517      -0.01354968       0.00586882
Pt      13.94484829      11.86538682      13.89525631       0.04611217       0.01517806      -0.00350889      -0.00780085
Pt      14.00570577      13.81589303      11.95453563       0.16618615       0.01943535       0.02684140       0.01925794
Pt      11.94222577      11.83184624      15.72785062       0.41372944      -0.00228807       0.00523760      -0.01802502
Pt      13.87715699      13.78873110      15.72987698       0.51513646      -0.00718779       0.00286298       0.02435082
Pt      14.12859009      15.73226767      10.10201382       0.45333601      -0.02652633       0.00571265      -0.00613739
Pt      12.12345589      15.80705713      11.93255589       0.32100714       0.00270555       0.00042294      -0.01745172
Pt      13.98089472      15.67331860      13.88052925       0.42373500      -0.00414273      -0.00861650      -0.00715692
Pt      15.90415924       9.92715867      10.06582598       0.54601256      -0.01454808       0.01906944       0.04031192
Pt      15.82889660       9.95856023      13.84201673       0.51312601      -0.00981591      -0.00200987       0.02070528
Pt      15.96847877      13.87717852      10.18763212       0.59421701      -0.00225662      -0.00679413      -0.01917165
Pt      15.96518298      11.87946882      11.99470038       0.40909731       0.01326586       0.01260460      -0.01331013
Pt      15.80761600      13.77564353      13.90489674       0.38426273       0.00000718       0.00057118       0.00081913
O        9.24277732      15.38173826       6.66794384       0.31476302       0.00068887      -0.00133990       0.00375275
C        8.11404182      14.54662547       7.70112983      -0.29671907       0.00736270      -0.00572305       0.00370566
O       15.87896097      15.53951185       8.55118347       0.25326043      -0.00123125      -0.00566208      -0.00356076
C       14.09128240      15.96598755       7.99790433      -0.17871711      -0.00630713       0.01861200      -0.00799049
O        7.71166865      10.26962674      15.79686817       0.23975935       0.00045048       0.00014857       0.01865361
C        8.24350051      11.81052001      14.96746708      -0.31086441      -0.01065348       0.00402893       0.00679786
O        8.20977401       9.41547564       7.46501536       0.25524664      -0.02451512       0.01200990       0.00761807
C       10.19848190       7.85512998       7.76014181      -0.12895740       0.03683100      -0.01534216       0.01407683
O        8.46495881      15.58831234      11.83557411       0.18317591       0.01298411      -0.00775176      -0.00656642
C        8.17135363      16.14067872      10.05131464      -0.19587894      -0.00443149       0.01169491       0.00797341
O       14.33995402      11.92302414       6.94033584       0.22087336       0.01570298       0.01561011      -0.03294014
C       16.81704961      11.90056402       9.88769516      -0.26792480      -0.00537531      -0.00475566      -0.00355860
O       15.67146785      11.80882651      15.47951629       0.16217134       0.00217963      -0.00264060       0.00249511
C       15.48844792       8.36485195      15.31438474      -0.23513082      -0.00452093       0.00486046       0.00282552
O        6.87657225       8.61242645       9.13427485       0.34599844       0.01590572      -0.01925054      -0.03622848
C        8.64972810       8.16615545       8.41936558      -0.25398437      -0.00086448       0.01816423       0.00065787
O       11.94415701      15.51466981      15.48184697       0.16100377       0.01186611      -0.00086651      -0.00752428
C       13.75856136      15.88317387      15.96448784      -0.15054632      -0.00279024       0.00283641       0.01028399
O       10.49685943      16.28933706       7.76015853       0.23852991       0.00988934       0.02458151      -0.01481965
C       12.22472938      16.81296080       9.93380669      -0.25592517       0.01574404      -0.02440642       0.00625433
O        7.06375153      14.68836865      15.27082833       0.31123983       0.00289533      -0.00987424       0.00581259
C        8.52504799      15.51310506      15.23502871      -0.31852438       0.00004593       0.01695347       0.01447750
O       14.20243703      17.02703681      12.01275587       0.23765692       0.00426192      -0.00133123       0.00642789
C       15.51637335      15.36584302      12.00562680      -0.35617712       0.00939317       0.00670656       0.00342260
O        8.38436494      11.19561607       7.77017373       0.18866047       0.00609598      -0.00379547      -0.00957947
C        7.64357270      11.99528370       9.43934573      -0.31787279      -0.00969214      -0.00380462      -0.00959831
O       16.19991479      15.98301318      13.61036321       0.28521209      -0.00550663      -0.00478292       0.00530261
C       15.48512471      15.30682709      15.45557584      -0.24074016       0.00924022       0.00035543       0.00096788
O       16.25984129       7.77866931      13.49720443       0.28880981      -0.01226937      -0.00069087       0.00886540
C       15.57818058       8.48151937      11.93925637      -0.36783442      -0.01420015       0.01144163      -0.01509457
O       15.76392982      11.85917051       8.33299671       0.16767900      -0.00413487       0.00074919       0.00247896
C       13.75124029       7.88822796       7.94885902      -0.13183954      -0.00354638      -0.00118539      -0.00749136
O       13.71812126       7.63459418      15.90917209       0.26628058      -0.00255535       0.01812181      -0.01924316
C       11.97150007       7.49408868      14.21482888      -0.30282466       0.00357332      -0.00370058      -0.00487667
O       11.93385960       8.50147902      15.77693494       0.18895666      -0.00106025       0.00216565       0.00092830
C       10.12951080       7.81246825      15.68954559      -0.18161926       0.00126368      -0.01171896       0.01123886
O        8.25393844       8.33424193      15.31163546       0.21702288      -0.00949117      -0.00405989       0.00252206
C        7.86799703       7.94321200      13.56140821      -0.18105944      -0.01013000       0.00268497      -0.00557539
O       16.08309533      13.59836436      16.14590855       0.26685470      -0.00184906       0.00139334      -0.00488546
C       14.06366366      11.80531509      16.59804961      -0.26261285      -0.01562587       0.00890881      -0.02484014
O       10.12108859      16.07671228      15.97256982       0.26064646      -0.00264595      -0.01592553      -0.01319799
C        7.99165195      15.91837041      13.62639439      -0.16586026      -0.00243837       0.00625374      -0.00498966
O        8.62190661       9.26296484      16.98555953       0.30154059      -0.00942950      -0.02192243      -0.00470266
C        9.62902908      11.86213065      16.34944793      -0.25067308       0.00135929       0.02594319       0.00540154
O       16.22987278       7.71007047      10.30710252       0.28861869      -0.00293010       0.00506159       0.00437521
C       15.58914285       8.39394672       8.51822274      -0.21758206       0.00032833       0.00546741       0.00079534
O        8.34211912       8.33776496      11.74288129       0.19168868       0.00160757       0.00586077       0.00160769
C        8.09917300       7.84493548      10.06209894      -0.21301409       0.01571631      -0.02006164      -0.01407023
O       12.12343715       6.76865443       9.77768441       0.24067913       0.02447976      -0.00184273      -0.00517704
C       12.10517246       8.36079369       8.48717418      -0.32343182       0.00023130       0.00913934       0.00433044
O        6.71441225      13.71218765       8.51404744       0.28157337       0.00075487      -0.00381560       0.00294520
C        9.14785326      13.64779874       6.45490529      -0.10073868      -0.01205899      -0.00009452      -0.00796883
O        8.32395866      14.63971929      16.66641963       0.30788872      -0.00301771       0.00257972       0.00338589
C        7.97114049      13.25531378      15.74445763      -0.22708520       0.00175839       0.00015177       0.00481549
O        8.14132509      12.86990095       7.71914742       0.21412043       0.02367360       0.00283310       0.02479602
C       10.07113716      11.98784402       7.24723512      -0.30264070      -0.01697141      -0.00554242       0.00147594
O        7.10979903      15.46942291       8.78881752       0.30926994      -0.01248634       0.01637916      -0.00472751
C        8.82822437      15.84213710       8.38790927      -0.28530575      -0.00323018      -0.01076182       0.00177478
O       12.23833135      15.72568550       8.36230020       0.17125499       0.01455869      -0.01274028      -0.00529664
C       12.29922890      14.11794317       7.25480235      -0.27101018       0.00379137      -0.01165146       0.01051209
